
*************** JDFTx 1.6.0  ***************

Start date and time: Tue Mar 30 16:07:43 2021
Executable jdftx with command-line: -i Si.scf.in
Running on hosts (process indices):  dhcp-10-31-205-151.dyn.mit.edu (0-3)
Divided in process groups (process indices):  0 (0)  1 (1)  2 (2)  3 (3)
Resource initialization completed at t[s]:      0.00
Run totals: 4 processes, 8 threads, 0 GPUs


Input parsed successfully to the following command list (including defaults):

basis kpoint-dependent
converge-empty-states yes
coords-type Lattice
core-overlap-check vector
coulomb-interaction Periodic
davidson-band-ratio 1.1
dump End State ElecDensity BandEigs EigStats
dump 
dump 
dump-name totalE.$VAR
elec-cutoff 20 100
elec-eigen-algo Davidson
elec-ex-corr gga-PBE
elec-n-bands 50
electronic-minimize  \
	dirUpdateScheme      FletcherReeves \
	linminMethod         DirUpdateRecommended \
	nIterations          100 \
	history              15 \
	knormThreshold       0 \
	energyDiffThreshold  1e-08 \
	nEnergyDiff          2 \
	alphaTstart          1 \
	alphaTmin            1e-10 \
	updateTestStepSize   yes \
	alphaTreduceFactor   0.1 \
	alphaTincreaseFactor 3 \
	nAlphaAdjustMax      3 \
	wolfeEnergy          0.0001 \
	wolfeGradient        0.9 \
	fdTest               no
electronic-scf  \
	nIterations	50 \
	energyDiffThreshold	1e-08 \
	residualThreshold	1e-07 \
	mixFraction	0.5 \
	qMetric	0.8 \
	history	10 \
	nEigSteps	2 \
	eigDiffThreshold	1e-08 \
	mixedVariable	Density \
	qKerker	0.8 \
	qKappa	-1 \
	verbose	no \
	mixFractionMag	1.5
exchange-regularization WignerSeitzTruncated
fluid None
fluid-ex-corr  lda-PZ
fluid-gummel-loop 10 1.000000e-05
fluid-minimize  \
	dirUpdateScheme      PolakRibiere \
	linminMethod         DirUpdateRecommended \
	nIterations          100 \
	history              15 \
	knormThreshold       0 \
	energyDiffThreshold  0 \
	nEnergyDiff          2 \
	alphaTstart          1 \
	alphaTmin            1e-10 \
	updateTestStepSize   yes \
	alphaTreduceFactor   0.1 \
	alphaTincreaseFactor 3 \
	nAlphaAdjustMax      3 \
	wolfeEnergy          0.0001 \
	wolfeGradient        0.9 \
	fdTest               no
fluid-solvent H2O 55.338 ScalarEOS \
	epsBulk 78.4 \
	pMol 0.92466 \
	epsInf 1.77 \
	Pvap 1.06736e-10 \
	sigmaBulk 4.62e-05 \
	Rvdw 2.61727 \
	Res 1.42 \
	tauNuc 343133 \
	poleEl 15 7 1
forces-output-coords Positions
ion Si   0.000000000000000   0.000000000000000   0.000000000000000 0
ion Si   0.250000000000000   0.250000000000000   0.250000000000000 0
ion-species GBRV/$ID_pbe.uspp
ion-width 0
ionic-minimize  \
	dirUpdateScheme      L-BFGS \
	linminMethod         DirUpdateRecommended \
	nIterations          0 \
	history              15 \
	knormThreshold       0.0001 \
	energyDiffThreshold  1e-06 \
	nEnergyDiff          2 \
	alphaTstart          1 \
	alphaTmin            1e-10 \
	updateTestStepSize   yes \
	alphaTreduceFactor   0.1 \
	alphaTincreaseFactor 3 \
	nAlphaAdjustMax      3 \
	wolfeEnergy          0.0001 \
	wolfeGradient        0.9 \
	fdTest               no
kpoint   0.000000000000   0.000000000000   0.000000000000  1.00000000000000
kpoint-folding 8 8 8 
latt-move-scale 1 1 1
latt-scale 1 1 1 
lattice Face-Centered Cubic 10.263
lattice-minimize  \
	dirUpdateScheme      L-BFGS \
	linminMethod         DirUpdateRecommended \
	nIterations          0 \
	history              15 \
	knormThreshold       0 \
	energyDiffThreshold  1e-06 \
	nEnergyDiff          2 \
	alphaTstart          1 \
	alphaTmin            1e-10 \
	updateTestStepSize   yes \
	alphaTreduceFactor   0.1 \
	alphaTincreaseFactor 3 \
	nAlphaAdjustMax      3 \
	wolfeEnergy          0.0001 \
	wolfeGradient        0.9 \
	fdTest               no
lcao-params -1 1e-06 0.001
pcm-variant GLSSA13
spintype no-spin
subspace-rotation-factor 1 yes
symmetries automatic
symmetry-threshold 0.0001



---------- Setting up symmetries ----------

Found 48 point-group symmetries of the bravais lattice
Found 48 space-group symmetries with basis
Applied RMS atom displacement 0 bohrs to make symmetries exact.

---------- Initializing the Grid ----------
R = 
[            0       5.1315       5.1315  ]
[       5.1315            0       5.1315  ]
[       5.1315       5.1315            0  ]
unit cell volume = 270.248
G =
[  -0.612217   0.612217   0.612217  ]
[   0.612217  -0.612217   0.612217  ]
[   0.612217   0.612217  -0.612217  ]
Minimum fftbox size, Smin = [  36  36  36  ]
Chosen fftbox size, S = [  36  36  36  ]

---------- Initializing tighter grid for wavefunction operations ----------
R = 
[            0       5.1315       5.1315  ]
[       5.1315            0       5.1315  ]
[       5.1315       5.1315            0  ]
unit cell volume = 270.248
G =
[  -0.612217   0.612217   0.612217  ]
[   0.612217  -0.612217   0.612217  ]
[   0.612217   0.612217  -0.612217  ]
Minimum fftbox size, Smin = [  32  32  32  ]
Chosen fftbox size, S = [  32  32  32  ]

---------- Exchange Correlation functional ----------
Initalized PBE GGA exchange.
Initalized PBE GGA correlation.

---------- Setting up pseudopotentials ----------
Width of ionic core gaussian charges (only for fluid interactions / plotting) set to 0

Reading pseudopotential file '/Users/ali/Desktop/JDFTX/build-withlibxc/pseudopotentials/GBRV/si_pbe.uspp':
  Title: Si.  Created by USPP 7.3.6 on 14-9-2013
  Reference state energy: -4.599342.  4 valence electrons in orbitals:
    |300>  occupation: 2  eigenvalue: -0.397366
    |310>  occupation: 2  eigenvalue: -0.149981
  lMax: 2  lLocal: 3  QijEcut: 5
  6 projectors sampled on a log grid with 627 points:
    l: 0  eig: -0.397364  rCut: 1.6
    l: 0  eig: 1.000000  rCut: 1.6
    l: 1  eig: -0.149982  rCut: 1.6
    l: 1  eig: 1.000000  rCut: 1.6
    l: 2  eig: -0.100000  rCut: 1.7
    l: 2  eig: 0.100000  rCut: 1.7
  Partial core density with radius 1.45
  Transforming core density to a uniform radial grid of dG=0.02 with 1833 points.
  Transforming local potential to a uniform radial grid of dG=0.02 with 1833 points.
  Transforming nonlocal projectors to a uniform radial grid of dG=0.02 with 432 points.
  Transforming density augmentations to a uniform radial grid of dG=0.02 with 1833 points.
  Transforming atomic orbitals to a uniform radial grid of dG=0.02 with 432 points.
  Core radius for overlap checks: 1.70 bohrs.

Initialized 1 species with 2 total atoms.

Folded 1 k-points by 8x8x8 to 512 k-points.

---------- Setting up k-points, bands, fillings ----------
Reduced to 29 k-points under symmetry. 
Computing the number of bands and number of electrons
Calculating initial fillings.
nElectrons:   8.000000   nBands: 50   nStates: 29

----- Setting up reduced wavefunction bases (one per k-point) -----
average nbasis = 1155.350 , ideal nbasis = 1154.521

---------- Setting up ewald sum ----------
Optimum gaussian width for ewald sums = 2.330638 bohr.
Real space sum over 1331 unit cells with max indices [  5  5  5  ]
Reciprocal space sum over 2197 terms with max indices [  6  6  6  ]

---------- Allocating electronic variables ----------
Initializing wave functions:  linear combination of atomic orbitals
Note: number of bands (50) exceeds available atomic orbitals (8)
Si pseudo-atom occupations:   s ( 2 )  p ( 2 )
	FillingsUpdate:  mu: +0.248736993  nElectrons: 8.000000
LCAOMinimize: Iter:   0  Etot: -7.9280457810611296  |grad|_K:  2.130e-04  alpha:  1.000e+00
	FillingsUpdate:  mu: +0.245389233  nElectrons: 8.000000
LCAOMinimize: Iter:   1  Etot: -7.9293326925032455  |grad|_K:  7.591e-06  alpha:  7.788e-01  linmin:  3.766e-02  cgtest: -8.278e-02  t[s]:      2.12
	FillingsUpdate:  mu: +0.245433990  nElectrons: 8.000000
LCAOMinimize: Iter:   2  Etot: -7.9293348971828079  |grad|_K:  7.749e-07  alpha:  1.067e+00  linmin: -1.068e-03  cgtest:  1.124e-01  t[s]:      2.58
LCAOMinimize: Encountered beta<0, resetting CG.
	FillingsUpdate:  mu: +0.245446464  nElectrons: 8.000000
LCAOMinimize: Iter:   3  Etot: -7.9293349157682256  |grad|_K:  1.063e-07  alpha:  8.538e-01  linmin: -5.623e-05  cgtest:  4.802e-04  t[s]:      3.05
LCAOMinimize: None of the convergence criteria satisfied after 3 iterations.


---- Citations for features of the code used in this run ----

   Software package:
      R. Sundararaman, K. Letchworth-Weaver, K.A. Schwarz, D. Gunceler, Y. Ozhabes and T.A. Arias, 'JDFTx: software for joint density-functional theory', SoftwareX 6, 278 (2017)

   gga-PBE exchange-correlation functional:
      J.P. Perdew, K. Burke and M. Ernzerhof, Phys. Rev. Lett. 77, 3865 (1996)

   Pseudopotentials:
      KF Garrity, JW Bennett, KM Rabe and D Vanderbilt, Comput. Mater. Sci. 81, 446 (2014)

This list may not be complete. Please suggest additional citations or
report any other bugs at https://github.com/shankar1729/jdftx/issues

Initialization completed successfully at t[s]:      3.14


-------- Electronic minimization -----------
Will mix electronic density at each iteration.
SCF: Cycle:  0   Etot: -7.942820469029273   dEtot: -1.349e-02   |Residual|: 1.548e-02   |deigs|: 3.694e-01  t[s]:      4.78
SCF: Cycle:  1   Etot: -7.942847267005288   dEtot: -2.680e-05   |Residual|: 8.279e-03   |deigs|: 2.368e-03  t[s]:      6.07
SCF: Cycle:  2   Etot: -7.942855989062742   dEtot: -8.722e-06   |Residual|: 3.890e-04   |deigs|: 4.474e-04  t[s]:      7.51
SCF: Cycle:  3   Etot: -7.942856052454077   dEtot: -6.339e-08   |Residual|: 1.009e-04   |deigs|: 1.046e-04  t[s]:      8.95
SCF: Cycle:  4   Etot: -7.942856065079156   dEtot: -1.263e-08   |Residual|: 4.520e-05   |deigs|: 3.519e-05  t[s]:     10.64
SCF: Cycle:  5   Etot: -7.942856067016437   dEtot: -1.937e-09   |Residual|: 4.725e-06   |deigs|: 2.173e-05  t[s]:     12.22
SCF: Cycle:  6   Etot: -7.942856067045572   dEtot: -2.913e-11   |Residual|: 1.941e-06   |deigs|: 1.011e-05  t[s]:     13.79
SCF: Converged (|Delta E|<1.000000e-08 for 2 iters).

Converging empty states (this may take a while): |deigs|: 1.163e-04

# Ionic positions in lattice coordinates:
ion Si   0.000000000000000   0.000000000000000   0.000000000000000 0
ion Si   0.250000000000000   0.250000000000000   0.250000000000000 0

# Forces in Lattice coordinates:
force Si   0.000000000000000   0.000000000000000  -0.000000000000000 0
force Si  -0.000000000000000   0.000000000000000   0.000000000000000 0

# Energy components:
   Eewald =       -8.3980092279323220
       EH =        0.5584337243542795
     Eloc =       -2.1046652204211682
      Enl =        1.6295048257369757
      Exc =       -4.3106285796758836
 Exc_core =        1.6535543974399627
       KE =        3.0289540134525841
-------------------------------------
     Etot =       -7.9428560670455717

IonicMinimize: Iter:   0  Etot: -7.942856067045572  |grad|_K:  0.000e+00  t[s]:     20.27
IonicMinimize: Converged (|grad|_K<1.000000e-04).

#--- Lowdin population analysis ---
# oxidation-state Si +0.035 +0.035


Dumping 'totalE.wfns' ... done
Dumping 'totalE.n' ... done
Dumping 'totalE.eigenvals' ... done
Dumping 'totalE.eigStats' ... 
	eMin: -0.211892 at state 0 ( [ +0.000000 +0.000000 +0.000000 ] spin 0 )
	HOMO: +0.227552 at state 0 ( [ +0.000000 +0.000000 +0.000000 ] spin 0 )
	mu  : +0.238601
	LUMO: +0.250373 at state 17 ( [ +0.000000 +0.375000 +0.375000 ] spin 0 )
	eMax: +2.297274 at state 20 ( [ +0.000000 +0.500000 +0.500000 ] spin 0 )
	HOMO-LUMO gap: +0.022822
	Optical gap  : +0.094304 at state 0 ( [ +0.000000 +0.000000 +0.000000 ] spin 0 )
End date and time: Tue Mar 30 16:08:03 2021  (Duration: 0-0:00:20.38)
Done!
